# vtk DataFile Version 2.0
Karman Vortex 001000
ASCII
DATASET STRUCTURED_POINTS
DIMENSIONS 10 8 1
SPACING 1.0 1.0 1.0
ORIGIN 0.0 0.0 0.0
POINT_DATA 80
SCALARS velocity float 1
LOOKUP_TABLE default
1.1 1.2 1.3 1.4 1.5 1.6 1.7 1.8 1.9 2.0
1.15 1.25 1.35 1.45 1.55 1.65 1.75 1.85 1.95 2.05
1.2 1.3 1.4 1.5 1.6 1.7 1.8 1.9 2.0 2.1
1.25 1.35 1.45 1.55 1.65 1.75 1.85 1.95 2.05 2.15
1.3 1.4 1.5 1.6 1.7 1.8 1.9 2.0 2.1 2.2
1.35 1.45 1.55 1.65 1.75 1.85 1.95 2.05 2.15 2.25
1.4 1.5 1.6 1.7 1.8 1.9 2.0 2.1 2.2 2.3
1.45 1.55 1.65 1.75 1.85 1.95 2.05 2.15 2.25 2.35
