# vtk DataFile Version 2.0
Sample Temperature Data
ASCII
DATASET STRUCTURED_POINTS
DIMENSIONS 10 10 1
SPACING 1.0 1.0 1.0
ORIGIN 0.0 0.0 0.0
POINT_DATA 100
SCALARS temperature float 1
LOOKUP_TABLE default
23.5 24.1 25.2 26.3 27.4 28.5 29.6 30.7 31.8 32.9
22.4 23.0 24.1 25.2 26.3 27.4 28.5 29.6 30.7 31.8
21.3 21.9 23.0 24.1 25.2 26.3 27.4 28.5 29.6 30.7
20.2 20.8 21.9 23.0 24.1 25.2 26.3 27.4 28.5 29.6
19.1 19.7 20.8 21.9 23.0 24.1 25.2 26.3 27.4 28.5
18.0 18.6 19.7 20.8 21.9 23.0 24.1 25.2 26.3 27.4
16.9 17.5 18.6 19.7 20.8 21.9 23.0 24.1 25.2 26.3
15.8 16.4 17.5 18.6 19.7 20.8 21.9 23.0 24.1 25.2
14.7 15.3 16.4 17.5 18.6 19.7 20.8 21.9 23.0 24.1
13.6 14.2 15.3 16.4 17.5 18.6 19.7 20.8 21.9 23.0
SCALARS pressure float 1
LOOKUP_TABLE default
101.3 101.4 101.5 101.6 101.7 101.8 101.9 102.0 102.1 102.2
101.2 101.3 101.4 101.5 101.6 101.7 101.8 101.9 102.0 102.1
101.1 101.2 101.3 101.4 101.5 101.6 101.7 101.8 101.9 102.0
101.0 101.1 101.2 101.3 101.4 101.5 101.6 101.7 101.8 101.9
100.9 101.0 101.1 101.2 101.3 101.4 101.5 101.6 101.7 101.8
100.8 100.9 101.0 101.1 101.2 101.3 101.4 101.5 101.6 101.7
100.7 100.8 100.9 101.0 101.1 101.2 101.3 101.4 101.5 101.6
100.6 100.7 100.8 100.9 101.0 101.1 101.2 101.3 101.4 101.5
100.5 100.6 100.7 100.8 100.9 101.0 101.1 101.2 101.3 101.4
100.4 100.5 100.6 100.7 100.8 100.9 101.0 101.1 101.2 101.3